ammonia_q+0 ub3lyp/aug-cc-pvdz opt-stable-freq                          
Freq      UB3LYP                                                      Gen                 
Number of atoms                            I                4
Info1-9                                    I   N=           9
          10           4           0           0           0         101
           6          18        -502
Charge                                     I                0
Multiplicity                               I                1
Number of electrons                        I               10
Number of alpha electrons                  I                5
Number of beta electrons                   I                5
Number of basis functions                  I               50
Number of independent functions            I               50
Number of point charges in /Mol/           I                0
Number of translation vectors              I                0
Atomic numbers                             I   N=           4
           7           1           1           1
Nuclear charges                            R   N=           4
  7.00000000E+00  1.00000000E+00  1.00000000E+00  1.00000000E+00
Current cartesian coordinates              R   N=          12
  1.08200316E-02  1.53859372E-03  1.24237734E-02 -8.44324551E-01  5.50840880E-01
  1.64696601E+00  1.37161019E+00  1.30832822E+00 -3.68734183E-01  9.19629065E-01
 -1.65264885E+00  3.89877848E-01
Force Field                                I                0
Int Atom Types                             I   N=           4
           0           0           0           0
MM charges                                 R   N=           4
  0.00000000E+00  0.00000000E+00  0.00000000E+00  0.00000000E+00
Integer atomic weights                     I   N=           4
          14           1           1           1
Real atomic weights                        R   N=           4
  1.40030740E+01  1.00782504E+00  1.00782504E+00  1.00782504E+00
Atom fragment info                         I   N=           4
           0           0           0           0
Atom residue num                           I   N=           4
           0           0           0           0
Nuclear spins                              I   N=           4
           2           1           1           1
Nuclear ZEff                               R   N=           4
 -4.55000000E+00 -1.00000000E+00 -1.00000000E+00 -1.00000000E+00
Nuclear ZNuc                               R   N=           4
  7.00000000E+00  1.00000000E+00  1.00000000E+00  1.00000000E+00
Nuclear QMom                               R   N=           4
  2.04400000E+00  0.00000000E+00  0.00000000E+00  0.00000000E+00
Nuclear GFac                               R   N=           4
  4.03761000E-01  2.79284600E+00  2.79284600E+00  2.79284600E+00
MicOpt                                     I   N=           4
          -1          -1          -1          -1
Number of contracted shells                I               24
Number of primitive shells                 I               44
Pure/Cartesian d shells                    I                0
Pure/Cartesian f shells                    I                0
Highest angular momentum                   I                2
Largest degree of contraction              I                7
Shell types                                I   N=          24
           0           0           0           0           1           1
           1          -2          -2           0           0           0
           1           1           0           0           0           1
           1           0           0           0           1           1
Number of primitives per shell             I   N=          24
           7           7           1           1           3           1
           1           1           1           3           1           1
           1           1           3           1           1           1
           1           3           1           1           1           1
Shell to atom map                          I   N=          24
           1           1           1           1           1           1
           1           1           1           2           2           2
           2           2           3           3           3           3
           3           4           4           4           4           4
Primitive exponents                        R   N=          44
  9.04600000E+03  1.35700000E+03  3.09300000E+02  8.77300000E+01  2.85600000E+01
  1.02100000E+01  3.83800000E+00  9.04600000E+03  3.09300000E+02  8.77300000E+01
  2.85600000E+01  1.02100000E+01  3.83800000E+00  7.46600000E-01  2.24800000E-01
  6.12400000E-02  1.35500000E+01  2.91700000E+00  7.97300000E-01  2.18500000E-01
  5.61100000E-02  8.17000000E-01  2.30000000E-01  1.30100000E+01  1.96200000E+00
  4.44600000E-01  1.22000000E-01  2.97400000E-02  7.27000000E-01  1.41000000E-01
  1.30100000E+01  1.96200000E+00  4.44600000E-01  1.22000000E-01  2.97400000E-02
  7.27000000E-01  1.41000000E-01  1.30100000E+01  1.96200000E+00  4.44600000E-01
  1.22000000E-01  2.97400000E-02  7.27000000E-01  1.41000000E-01
Contraction coefficients                   R   N=          44
  7.01708743E-04  5.40299880E-03  2.74729510E-02  1.03514580E-01  2.79586579E-01
  4.51317241E-01  2.80626875E-01  7.77446797E-06  3.00742072E-04 -2.80016549E-03
 -9.89708505E-03 -1.14331114E-01 -1.18162383E-01  1.09786885E+00  1.00000000E+00
  1.00000000E+00  5.89056768E-02  3.20461107E-01  7.53042062E-01  1.00000000E+00
  1.00000000E+00  1.00000000E+00  1.00000000E+00  3.34987264E-02  2.34800801E-01
  8.13682958E-01  1.00000000E+00  1.00000000E+00  1.00000000E+00  1.00000000E+00
  3.34987264E-02  2.34800801E-01  8.13682958E-01  1.00000000E+00  1.00000000E+00
  1.00000000E+00  1.00000000E+00  3.34987264E-02  2.34800801E-01  8.13682958E-01
  1.00000000E+00  1.00000000E+00  1.00000000E+00  1.00000000E+00
Coordinates of each shell                  R   N=          72
  1.08200316E-02  1.53859372E-03  1.24237734E-02  1.08200316E-02  1.53859372E-03
  1.24237734E-02  1.08200316E-02  1.53859372E-03  1.24237734E-02  1.08200316E-02
  1.53859372E-03  1.24237734E-02  1.08200316E-02  1.53859372E-03  1.24237734E-02
  1.08200316E-02  1.53859372E-03  1.24237734E-02  1.08200316E-02  1.53859372E-03
  1.24237734E-02  1.08200316E-02  1.53859372E-03  1.24237734E-02  1.08200316E-02
  1.53859372E-03  1.24237734E-02 -8.44324551E-01  5.50840880E-01  1.64696601E+00
 -8.44324551E-01  5.50840880E-01  1.64696601E+00 -8.44324551E-01  5.50840880E-01
  1.64696601E+00 -8.44324551E-01  5.50840880E-01  1.64696601E+00 -8.44324551E-01
  5.50840880E-01  1.64696601E+00  1.37161019E+00  1.30832822E+00 -3.68734183E-01
  1.37161019E+00  1.30832822E+00 -3.68734183E-01  1.37161019E+00  1.30832822E+00
 -3.68734183E-01  1.37161019E+00  1.30832822E+00 -3.68734183E-01  1.37161019E+00
  1.30832822E+00 -3.68734183E-01  9.19629065E-01 -1.65264885E+00  3.89877848E-01
  9.19629065E-01 -1.65264885E+00  3.89877848E-01  9.19629065E-01 -1.65264885E+00
  3.89877848E-01  9.19629065E-01 -1.65264885E+00  3.89877848E-01  9.19629065E-01
 -1.65264885E+00  3.89877848E-01
Constraint Structure                       R   N=          12
  1.08200316E-02  1.53859372E-03  1.24237734E-02 -8.44324551E-01  5.50840880E-01
  1.64696601E+00  1.37161019E+00  1.30832822E+00 -3.68734183E-01  9.19629065E-01
 -1.65264885E+00  3.89877848E-01
Num ILSW                                   I              100
ILSW                                       I   N=         100
           1           0           0           0           2           0
           0           0           0           0         402          -1
           5           0           0           0           2           0
           0           0           0           0           1           0
           1           1           0           0           0           0
           0           0      100000           0          -1           0
           0           0           0           0           0           0
           0           0           0           1           0           0
           0           0           1           0           0           0
           0           0           4          41           0           0
           0           0           5           0           0           0
           0           0           0           4           0           0
           0           0           0           0           0           0
           0           0           0           0           0           0
           0           0           0           0           0           0
           0           0           0           0           0           0
           0           0           0           0
Num RLSW                                   I               41
RLSW                                       R   N=          41
  8.00000000E-01  7.20000000E-01  1.00000000E+00  8.10000000E-01  2.00000000E-01
  0.00000000E+00  0.00000000E+00  1.00000000E+00  0.00000000E+00  0.00000000E+00
  0.00000000E+00  0.00000000E+00  1.00000000E+00  0.00000000E+00  0.00000000E+00
  0.00000000E+00  0.00000000E+00  1.00000000E+00  0.00000000E+00  0.00000000E+00
  0.00000000E+00  0.00000000E+00  1.00000000E+00  0.00000000E+00  0.00000000E+00
  0.00000000E+00  0.00000000E+00  1.00000000E+00  0.00000000E+00  0.00000000E+00
  0.00000000E+00  0.00000000E+00  1.00000000E+00  0.00000000E+00  0.00000000E+00
  0.00000000E+00  0.00000000E+00  0.00000000E+00  1.00000000E+00  1.00000000E+00
  0.00000000E+00
MxBond                                     I                3
NBond                                      I   N=           4
           3           1           1           1
IBond                                      I   N=          12
           2           3           4           1           0           0
           1           0           0           1           0           0
RBond                                      R   N=          12
  1.00000000E+00  1.00000000E+00  1.00000000E+00  1.00000000E+00  0.00000000E+00
  0.00000000E+00  1.00000000E+00  0.00000000E+00  0.00000000E+00  1.00000000E+00
  0.00000000E+00  0.00000000E+00
Virial Ratio                               R      2.007801501632598E+00
SCF Energy                                 R     -5.657079904401908E+01
Total Energy                               R     -5.657079904401908E+01
S**2                                       R     -5.329070518200751E-15
S**2 after annihilation                    R      3.552713678800488E-14
RMS Force                                  R      5.388664580900543E-07
RMS Density                                R      3.418987550534826E-10
External E-field                           R   N=          35
  0.00000000E+00  0.00000000E+00  0.00000000E+00  0.00000000E+00  0.00000000E+00
  0.00000000E+00  0.00000000E+00  0.00000000E+00  0.00000000E+00  0.00000000E+00
  0.00000000E+00  0.00000000E+00  0.00000000E+00  0.00000000E+00  0.00000000E+00
  0.00000000E+00  0.00000000E+00  0.00000000E+00  0.00000000E+00  0.00000000E+00
  0.00000000E+00  0.00000000E+00  0.00000000E+00  0.00000000E+00  0.00000000E+00
  0.00000000E+00  0.00000000E+00  0.00000000E+00  0.00000000E+00  0.00000000E+00
  0.00000000E+00  0.00000000E+00  0.00000000E+00  0.00000000E+00  0.00000000E+00
IOpCl                                      I                1
IROHF                                      I                0
Alpha Orbital Energies                     R   N=          50
 -1.43195056E+01 -8.57237514E-01 -4.65339319E-01 -4.65338123E-01 -2.74810004E-01
 -1.81034995E-02  2.64415769E-02  2.64416706E-02  8.67815390E-02  1.16753483E-01
  1.38940844E-01  1.38941115E-01  1.63502952E-01  1.63503432E-01  2.26238609E-01
  2.35073109E-01  2.35073508E-01  3.53256701E-01  4.18166892E-01  4.23234188E-01
  4.23234560E-01  4.85196350E-01  5.20516904E-01  5.20517427E-01  5.40847649E-01
  5.40848231E-01  6.73229132E-01  7.50071837E-01  7.50072041E-01  8.98754838E-01
  9.77890166E-01  9.77890821E-01  1.09604321E+00  1.55816915E+00  1.55816959E+00
  1.67449819E+00  1.80674339E+00  1.80674381E+00  1.83407637E+00  2.04864054E+00
  2.04864078E+00  2.07468588E+00  2.07468757E+00  2.08699704E+00  2.32680478E+00
  2.56938754E+00  2.56938843E+00  2.76162257E+00  3.13954939E+00  3.13955060E+00
Beta Orbital Energies                      R   N=          50
 -1.43195056E+01 -8.57237514E-01 -4.65339319E-01 -4.65338123E-01 -2.74810004E-01
 -1.81034995E-02  2.64415769E-02  2.64416706E-02  8.67815390E-02  1.16753483E-01
  1.38940844E-01  1.38941115E-01  1.63502952E-01  1.63503432E-01  2.26238609E-01
  2.35073109E-01  2.35073508E-01  3.53256701E-01  4.18166892E-01  4.23234188E-01
  4.23234560E-01  4.85196350E-01  5.20516904E-01  5.20517427E-01  5.40847649E-01
  5.40848231E-01  6.73229132E-01  7.50071837E-01  7.50072041E-01  8.98754838E-01
  9.77890166E-01  9.77890821E-01  1.09604321E+00  1.55816915E+00  1.55816959E+00
  1.67449819E+00  1.80674339E+00  1.80674381E+00  1.83407637E+00  2.04864054E+00
  2.04864078E+00  2.07468588E+00  2.07468757E+00  2.08699704E+00  2.32680478E+00
  2.56938754E+00  2.56938843E+00  2.76162257E+00  3.13954939E+00  3.13955060E+00
Alpha MO coefficients                      R   N=        2500
  9.96675542E-01  2.81373478E-02 -2.52146618E-02 -9.86699773E-03  1.42541104E-03
  2.03481734E-04  1.64347046E-03 -1.34264267E-03 -1.91655329E-04 -1.54804289E-03
 -4.30879764E-04 -6.15091606E-05 -4.96796697E-04 -2.53849187E-04 -6.18851645E-04
 -8.83441564E-05 -2.62893093E-04 -7.66138454E-05  3.37854780E-04  8.23643127E-04
  1.17578749E-04  3.49894791E-04  1.01973460E-04 -3.16722254E-04  7.44705316E-03
  8.29629093E-04 -6.86765937E-04  4.31930985E-04  1.27674026E-03  1.00132354E-03
 -9.42709817E-04 -3.08299013E-03 -3.16728037E-04  7.44706035E-03  8.29630087E-04
  1.06244547E-03  1.02987752E-03 -3.14408266E-04 -2.58195998E-03 -2.16760779E-03
  1.76502248E-04 -3.16712939E-04  7.44701808E-03  8.29625889E-04  7.05652850E-04
 -1.30744276E-03  2.84421520E-04 -1.85107426E-03  2.62043964E-03 -1.05020852E-03
 -1.95427864E-01  4.17681286E-01  2.44713535E-01  2.95707108E-02  6.13665330E-02
  8.76008853E-03  7.07543905E-02 -6.01560929E-03 -8.58770590E-04 -6.93577629E-03
  5.49647008E-03  7.84641101E-04  6.33738234E-03 -3.43676920E-04 -8.37867261E-04
 -1.19618705E-04 -3.55905454E-04 -1.03716071E-04  2.89084706E-03  7.04763986E-03
  1.00618143E-03  2.99374464E-03  8.72486278E-04  2.01532978E-01  1.18439882E-02
 -6.28384021E-04  1.91848218E-02 -9.67723908E-03 -2.63416965E-02  5.43466449E-03
 -1.74712201E-03 -3.58080503E-03  2.01533246E-01  1.18442024E-02 -6.28354606E-04
 -2.17947897E-02 -2.36855867E-02  1.09349326E-02 -2.89196180E-03 -4.59350926E-03
  3.99340437E-03  2.01532667E-01  1.18434483E-02 -6.28350746E-04 -1.34361879E-02
  3.10722549E-02 -3.09414681E-03 -1.19349497E-03  6.53273164E-03  1.14290105E-03
  3.01524198E-08 -7.11195053E-08 -2.45543315E-07 -1.62365949E-07  3.38623552E-01
  1.27003252E-01 -3.09417789E-01  8.16739937E-02  3.06324198E-02 -7.46297803E-02
 -6.30919966E-03 -2.36633368E-03  5.76502628E-03 -2.03594673E-02  5.48532822E-03
 -5.30716828E-03  4.37667728E-03  1.42510604E-02  2.19001599E-02 -1.12318512E-02
  2.21347176E-02  6.99767244E-03 -3.13714357E-02 -3.42890848E-01 -2.32762127E-01
 -1.89807961E-02 -1.96218379E-03  1.48707011E-02  1.69772969E-02 -2.50899763E-02
  1.17139238E-02  3.56092310E-02  3.51933296E-01  2.38900511E-01  1.94813887E-02
 -1.15630881E-02 -1.90007382E-02 -5.18665453E-03 -3.06396501E-02 -3.14089264E-02
  1.47609410E-02 -9.04248652E-03 -6.13826381E-03 -5.00557144E-04  1.38458348E-02
  4.25028659E-03 -1.20835534E-02 -1.15900462E-03 -1.64149740E-03  1.61192994E-03
 -1.63058383E-07  3.47913789E-07  1.74335352E-07 -4.76960216E-08 -1.24341979E-01
  4.56553076E-01  5.13175528E-02 -2.99909251E-02  1.10119292E-01  1.23776624E-02
  2.31662563E-03 -8.50606611E-03 -9.56061383E-04  8.17219379E-03 -9.04824435E-03
  1.31668595E-02  3.44528038E-03  1.90031213E-02 -1.78691301E-02  2.11209311E-02
 -5.79812750E-03 -2.20495768E-02 -2.90455543E-02  2.08408899E-01  1.41473146E-01
  1.15364966E-02  4.42083744E-03  1.21107312E-02 -1.57372133E-02  1.48583077E-02
 -9.68316205E-03 -2.09865927E-02  1.92746906E-01  1.30841450E-01  1.06695512E-02
 -1.86083504E-02  4.92804966E-03  5.90748376E-03 -1.52928911E-02 -1.90606887E-02
  7.02382399E-03 -4.01156633E-01 -2.72314721E-01 -2.22060473E-02  1.40697238E-02
 -1.66063135E-02  9.87830584E-03  2.13238495E-02 -4.79565488E-02  5.34136506E-03
  6.62948819E-02 -1.44742701E-01 -2.85044073E-01 -1.05279905E-01  3.57433480E-01
  5.10244514E-02  4.12114768E-01  2.25206611E-01  3.21486667E-02  2.59659489E-01
  5.85906103E-02  8.36391187E-03  6.75539329E-02  6.08081097E-03  1.48239811E-02
  2.11614001E-03  6.29755461E-03  1.83538148E-03  6.98475712E-03  1.70278686E-02
  2.43075032E-03  7.23369551E-03  2.10815526E-03  9.85441876E-02  5.47005472E-02
  8.73906244E-03  2.03652630E-02 -1.17958711E-03  7.52946898E-03  2.14809951E-02
  1.25883846E-03  1.77122796E-02  9.85441096E-02  5.47008074E-02  8.73916914E-03
  6.87664446E-03 -5.79048940E-03  1.97992541E-02  1.55151346E-02 -7.80566476E-04
  2.31390007E-02  9.85436817E-02  5.47000148E-02  8.73900052E-03  9.62789390E-03
  1.22333137E-02  1.51815102E-02  1.67320324E-02  7.19116675E-03  2.10965836E-02
 -5.66372299E-02  1.34535682E-01  3.67241083E-01  8.65227023E-01  6.47699167E-02
  9.24529760E-03  7.46788695E-02  7.43472798E-02  1.06129139E-02  8.57210052E-02
  1.88689176E-02  2.69277445E-03  2.17554602E-02  1.38076666E-03  3.36609375E-03
  4.80480595E-04  1.42998857E-03  4.16773098E-04 -1.53735081E-03 -3.74777203E-03
 -5.34883303E-04 -1.59207243E-03 -4.63972127E-04 -2.57668375E-02 -2.36203940E-01
 -4.88435513E-01  8.25780247E-03 -4.11855933E-03 -1.11554981E-02  1.20617055E-02
 -3.58869769E-03 -6.82001909E-03 -2.57669005E-02 -2.36203419E-01 -4.88424307E-01
 -9.22651008E-03 -1.00952562E-02  4.74892852E-03 -5.46579001E-03 -9.58042831E-03
  9.12393947E-03 -2.57668478E-02 -2.36202662E-01 -4.88435111E-01 -5.66034479E-03
  1.32676314E-02 -1.23672074E-03 -1.89096231E-03  1.38410200E-02  3.12340077E-03
  2.17334157E-07 -7.05303634E-07 -9.89866637E-08  9.11776080E-06 -3.60822204E-02
 -1.31182573E-01  4.75354485E-02 -4.77211084E-02 -1.73501241E-01  6.28707563E-02
 -1.65898203E-01 -6.03169077E-01  2.18570906E-01  5.76720605E-04  3.61175988E-04
 -5.31061098E-04 -5.51045294E-04 -2.32538245E-03  1.18206674E-02 -1.35195684E-03
 -2.02174918E-02  7.04300925E-04 -7.34906204E-03  1.43426702E-03 -4.63267901E-02
 -4.38854028E-01 -1.30752697E-04 -2.36800195E-03 -9.44035984E-04  1.09878328E-02
  6.73391729E-02 -1.57867488E-02 -9.37732099E-03  3.02921549E-01  2.86973304E+00
  8.42609604E-03  5.15616006E-03  8.85761115E-04 -2.29004096E-02  1.61361606E-02
  4.25547926E-03  7.94318684E-03 -2.56601742E-01 -2.43088040E+00 -6.11244178E-03
  5.14776133E-03 -2.81739349E-03  3.74981103E-02  9.54931075E-03 -2.21783008E-02
 -7.09450701E-08  3.24672980E-07 -8.92233247E-07 -7.27725250E-06  1.03097858E-01
 -5.81502685E-02 -8.22181613E-02  1.36356525E-01 -7.69103356E-02 -1.08742265E-01
  4.74035584E-01 -2.67374085E-01 -3.78038229E-01 -1.99318360E-03  1.00505833E-03
 -1.21234639E-03 -1.70416476E-05 -5.72727184E-05 -1.40427742E-02 -4.67057335E-04
 -5.09207790E-03  1.83328240E-02 -6.73676988E-03 -9.99998395E-03  3.23044535E-01
  3.06030919E+00 -1.22945268E-03  2.48726646E-03  1.01770742E-02 -3.73936046E-03
  7.91048317E-03 -1.22477355E-02  3.75824410E-03 -1.21399312E-01 -1.15008662E+00
 -2.09913316E-03 -3.66262241E-03 -1.26559499E-03 -3.43239188E-02  4.78733918E-02
  2.92961691E-02  6.24158967E-03 -2.01640799E-01 -1.91021901E+00 -2.90833777E-03
  4.69304652E-03 -3.93769033E-03 -3.50459961E-02 -1.45480046E-02  4.12559268E-02
  7.85817155E-05 -4.81037473E-02  3.25956758E-01  3.01888488E+00 -1.56413582E-01
 -2.23277370E-02 -1.80343116E-01 -2.77533125E-02 -3.96027552E-03 -3.20031036E-02
  1.05503795E+00  1.50612391E-01  1.21642867E+00 -5.89038293E-03 -1.43599111E-02
 -2.04990749E-03 -6.10036164E-03 -1.77789001E-03  1.17063019E-02  2.85397903E-02
  4.07409093E-03  1.21244800E-02  3.53387771E-03 -7.88087099E-04 -7.69121590E-01
 -5.30046539E-01 -1.35161522E-02  7.86452021E-03  2.26436523E-02 -1.43278415E-01
  1.99669807E-02 -7.42463741E-03 -7.89179804E-04 -7.69136784E-01 -5.30070234E-01
  1.88096188E-02  1.89147669E-02 -6.76114752E-03 -9.86374375E-03  6.55738952E-02
 -1.28784634E-01 -7.88064160E-04 -7.69122808E-01 -5.30049048E-01  1.22161019E-02
 -2.42796630E-02  4.30546467E-03 -3.70768331E-02 -1.12696876E-01 -8.31098608E-02
  6.88926542E-02 -2.55312159E-01  2.64087678E-01  4.09628266E+00 -7.48372489E-03
 -1.06702525E-03 -8.62892071E-03  1.19485808E-01  1.70570917E-02  1.37760690E-01
 -1.21772221E-01 -1.73868351E-02 -1.40418892E-01  2.08384026E-03  5.07992590E-03
  7.25165468E-04  2.15813682E-03  6.28958293E-04 -3.44914491E-02 -8.40831446E-02
 -1.20031801E-02 -3.57202586E-02 -1.04102708E-02  5.37540068E-02 -6.03190184E-01
 -8.31613856E-01 -1.59636016E-02  7.81383305E-03  2.09877160E-02 -8.37562394E-02
  1.01016780E-01  3.44390057E-01  5.37525332E-02 -6.03207291E-01 -8.31634636E-01
  1.73481387E-02  1.92011094E-02 -9.31396279E-03  2.89125750E-01  2.28481726E-01
  5.20363716E-03  5.37533200E-02 -6.03200714E-01 -8.31632755E-01  1.05536167E-02
 -2.53108995E-02  2.09022228E-03  2.13069511E-01 -2.69770388E-01  1.32857989E-01
  1.27954193E-07 -5.02626220E-07  1.25305947E-06  1.63825038E-05  3.57421163E-02
 -7.50691089E-02 -2.17049108E-02 -1.54033416E-01  3.23530835E-01  9.35399902E-02
 -1.21623036E+00  2.55454057E+00  7.38575208E-01 -1.01888288E-02  9.98487041E-03
 -6.34210174E-03 -8.54367597E-03 -1.02612468E-02  6.38170307E-02 -5.92196918E-02
  4.87801525E-02  4.15470153E-02  6.80724587E-02 -1.17596402E-01 -1.53017234E+00
 -2.40435358E+00 -1.20766520E-02  1.47831966E-02  1.26865469E-02 -6.65515991E-02
  1.12809255E-01  1.85398838E-01 -4.51558050E-02 -5.87559174E-01 -9.23216253E-01
 -2.41753531E-03  1.45690867E-02  1.84522077E-03  2.30124319E-02  1.06214275E-01
  2.12780365E-02  1.62751538E-01  2.11772211E+00  3.32756219E+00 -1.20997848E-02
  2.65052239E-02  1.61806002E-03 -1.74993028E-01  2.39977821E-01 -7.39670495E-02
  2.23736814E-07 -6.95196826E-07 -6.89458556E-07  9.08083706E-06  5.44458188E-02
  4.10426629E-02 -5.23041508E-02 -2.34637528E-01 -1.76880740E-01  2.25404032E-01
 -1.85266379E+00 -1.39662071E+00  1.77976350E+00 -9.39085633E-03  2.76702872E-03
 -7.51791587E-03  2.95486572E-04  1.64181158E-02  6.81400981E-02 -1.71441114E-02
  3.67078627E-02 -8.68961582E-03 -9.97956337E-02 -1.20032730E-01 -1.56189707E+00
 -2.45422267E+00 -1.50443967E-02 -2.71008788E-03  1.75102132E-02 -8.33985047E-02
  1.38346703E-02  2.15203520E-01  1.61857811E-01  2.10611489E+00  3.30934246E+00
 -1.89505154E-02 -1.77268088E-02  1.30666999E-02 -2.39678901E-01 -1.84384383E-01
  3.57475298E-02 -4.18242165E-02 -5.44219404E-01 -8.55127267E-01 -6.51550495E-03
 -1.01016044E-02  8.33945094E-03 -9.81358189E-03 -8.03981409E-02  6.88420277E-02
  2.32118775E-07 -6.74804447E-07  2.76231215E-07  3.42366361E-06  9.81627126E-02
 -3.31482869E-01 -4.40973265E-02  4.48232712E-02 -1.51360963E-01 -2.01353472E-02
 -2.26133481E-01  7.63631093E-01  1.01584302E-01  1.20328226E-02 -1.46503311E-02
 -3.43599317E-03  1.98269291E-02  1.43924968E-02 -3.87707340E-03  6.80215767E-03
  2.36817173E-02 -2.22476174E-02  6.94034109E-03  9.02565139E-02  1.32617647E-01
 -1.19558219E+00 -8.11956780E-03 -1.13920541E-02  1.64291537E-02 -1.47078329E-01
 -1.19694941E-01  3.73933369E-01  7.54900577E-02  1.10916800E-01 -9.99988528E-01
  1.84739942E-02 -4.18709729E-03 -8.83288777E-03  3.60639769E-01  1.86575411E-02
 -1.21430472E-01 -1.65745303E-01 -2.43533450E-01  2.19556702E+00 -1.23347696E-02
  2.22661763E-02 -6.70684737E-03 -3.36263744E-01  5.15387421E-01 -1.97383900E-01
 -7.86986591E-08  4.20258372E-07 -1.25931198E-06 -1.27402265E-05  2.45221648E-01
  1.02601784E-01 -2.25387310E-01  1.11975744E-01  4.68509150E-02 -1.02918750E-01
 -5.64886865E-01 -2.36355182E-01  5.19196424E-01  6.48860572E-03 -6.76404512E-03
  1.83490564E-02  9.69379413E-03 -2.12832574E-02  1.98811584E-02  1.75204299E-03
 -1.79422354E-02 -1.95791933E-02  7.84993928E-03  1.39278211E-01  2.04670162E-01
 -1.84490653E+00 -7.35655410E-03  1.63071802E-02  1.66704188E-02 -1.53873064E-01
  2.94093302E-01  4.54360569E-01 -1.47803029E-01 -2.17189189E-01  1.95784441E+00
 -1.20341849E-02 -2.19523771E-02  9.28986948E-05 -3.65070889E-01 -4.62536774E-01
 -5.29073036E-03  8.52506707E-03  1.25270580E-02 -1.12931071E-01  1.44441562E-02
  3.57547527E-03 -1.22169265E-02  2.12418352E-01  4.01907860E-02 -1.67339236E-01
 -3.75429085E-02  4.91813334E-02  4.82524817E-01  4.67127364E+00  3.67318130E-02
  5.24034425E-03  4.23496770E-02 -4.02401272E-02 -5.75041680E-03 -4.63996943E-02
  1.74570049E-01  2.48821829E-02  2.01264596E-01  1.40362977E-02  3.42197844E-02
  4.88613424E-03  1.45357302E-02  4.23673221E-03 -3.78565954E-02 -9.22977219E-02
 -1.31820742E-02 -3.92010393E-02 -1.14264462E-02 -1.24390118E-01 -1.68640037E+00
 -3.70379480E-01  8.19853375E-03  1.36551802E-03  1.02097922E-02  4.84658351E-01
 -4.96552919E-02  9.48402437E-02 -1.24390295E-01 -1.68640600E+00 -3.70374639E-01
  8.83828696E-03  1.58418038E-03  9.62792719E-03  9.23184800E-02 -1.83771999E-01
  4.51728651E-01 -1.24390890E-01 -1.68639268E+00 -3.70406429E-01  8.70790477E-03
  7.26164608E-04  9.84581005E-03  1.72322483E-01  3.40446660E-01  3.17376102E-01
  3.84972889E-08 -5.05038599E-08 -6.52585778E-07 -7.43391440E-07 -5.01144189E-02
 -1.52625403E-02  4.53542036E-02 -7.90196237E-02 -2.40659512E-02  7.15131143E-02
 -5.88234443E-01 -1.79151421E-01  5.32365472E-01 -2.54796213E-02 -6.44231454E-03
  3.05740366E-02  3.53770232E-02 -2.01865649E-02  1.10031836E-01  4.26410192E-02
 -1.72959836E-01 -1.85420468E-01  1.26681763E-01 -2.30878788E-03  3.59320024E-01
 -3.97078167E-01 -2.16550897E-02  1.90563463E-02 -6.17355636E-03 -3.18271912E-01
  2.83276443E-01 -8.06468026E-01  2.24137068E-03 -3.48803367E-01  3.85460919E-01
  1.26715878E-02 -2.32011677E-02  1.38170828E-02  8.49949309E-01 -1.37112420E-01
  2.96590670E-01  6.75919448E-05 -1.05142583E-02  1.16163456E-02  2.51332150E-02
  9.06322262E-03 -2.22593722E-02  6.51195717E-01  2.14086101E-01 -5.60647726E-01
  1.30427858E-06 -1.84186142E-06 -1.71456037E-05 -1.43341736E-04  1.57028986E-02
 -6.72819981E-02 -5.29069208E-03  2.47639019E-02 -1.06088213E-01 -8.33766702E-03
  1.84321987E-01 -7.89741983E-01 -6.20933045E-02 -1.24405095E-02  1.52898160E-02
  3.83169815E-02 -3.76805068E-02  2.82155725E-03  7.67060327E-02 -9.42103214E-02
 -1.89749803E-01  2.08293839E-01  1.08930195E-02  1.25852432E-03 -1.95262545E-01
  2.15844957E-01  1.75609335E-02  2.75756684E-02 -6.36335198E-03  3.20417607E-01
  8.11889265E-01  1.90907057E-01  1.37549799E-03 -2.13473785E-01  2.35973065E-01
 -1.55229729E-02  1.48778321E-02  2.50481865E-02 -7.24410010E-02  6.56514906E-01
  6.03962718E-01 -2.62284904E-03  4.08895208E-01 -4.51785188E-01 -7.09938605E-03
 -2.07716169E-02 -1.69810626E-02 -6.18666055E-01  1.19682007E-01 -6.70045862E-01
 -2.73288917E-02  3.93156195E-02  5.36483227E-01  5.55895469E+00  2.14780916E-01
  3.06604564E-02  2.47638666E-01  7.41499405E-01  1.05851881E-01  8.54930320E-01
  1.26266294E+00  1.80250272E-01  1.45582318E+00 -4.90879987E-03 -1.19669798E-02
 -1.70842885E-03 -5.08352147E-03 -1.48142155E-03  3.58300204E-02  8.73515945E-02
  1.24698924E-02  3.71071883E-02  1.08155435E-02 -7.27021918E-02 -1.99962865E+00
 -4.92181790E-01 -1.37385709E-02  3.90355868E-03  7.05172294E-03 -6.27569560E-01
 -2.92609375E-02 -4.88091736E-01 -7.27018061E-02 -1.99965275E+00 -4.92188751E-01
  5.61956656E-03  1.05210786E-02 -1.05569245E-02 -4.28431958E-01  3.88146253E-02
 -6.69229951E-01 -7.27024832E-02 -1.99964003E+00 -4.92180671E-01  1.67080421E-03
 -1.53451377E-02 -3.92972333E-03 -4.69049986E-01 -2.27270060E-01 -6.01051699E-01
  6.87221357E-09  3.05349164E-08 -4.99574822E-07 -3.70350932E-07 -4.95004781E-06
 -1.95691637E-06  4.56035693E-06 -2.03993111E-05 -8.05725523E-06  1.86523553E-05
 -7.67088158E-05 -3.02275783E-05  7.04075761E-05  1.30633946E-06 -4.74170201E-07
  7.01409259E-07 -9.16108149E-10 -1.26422853E-06 -6.51848422E-07  3.47468114E-07
 -3.63543451E-07 -1.83837695E-07  5.05776965E-07  1.57025672E-06 -2.95652339E-05
 -6.54359450E-05 -1.88163291E-03 -1.23225110E-02  3.15780561E-03  2.22525268E-01
  1.45748014E+00 -3.73403111E-01 -1.59586536E-06  3.31725076E-05  6.82335990E-05
 -7.34166246E-03  9.16962268E-03  5.23206402E-03  8.68261378E-01 -1.08460742E+00
 -6.18821109E-01 -2.37707415E-08 -3.11335348E-06 -2.55840914E-06  9.22249253E-03
  3.15257445E-03 -8.38913030E-03 -1.09069965E+00 -3.72840834E-01  9.92144406E-01
 -1.79419035E-07  1.55845851E-07  5.50599471E-06 -3.92586184E-06  1.35540896E-01
  4.79570795E-02 -1.23494731E-01  6.14943968E-01  2.17582111E-01 -5.60290747E-01
  2.13323200E+00  7.54783843E-01 -1.94363952E+00 -3.42056401E-02  1.18920742E-02
 -1.66679489E-02  1.70837217E-03  3.06331867E-02 -3.96642897E-03  6.25061276E-03
 -1.64518155E-02 -1.05066502E-02  1.76781360E-02 -4.35006402E-02  8.51226097E-01
  1.83292095E+00  1.54928742E-02 -1.14373464E-02 -1.91810708E-02 -1.39022903E+00
 -4.85644231E-01 -8.15346505E-02  4.39127482E-02 -8.59303499E-01 -1.85029952E+00
  1.45912917E-02  2.17444893E-02 -8.11956910E-03 -1.21724982E-01 -5.31297375E-02
  1.47236234E+00 -4.12661723E-04  8.07773271E-03  1.73804965E-02 -5.72934246E-03
 -1.68980197E-03  5.11037385E-03 -9.21919248E-01 -3.22375674E-01  8.26735364E-01
  2.45052514E-07  1.31551337E-07 -8.81080910E-06 -1.22154360E-05 -4.75724001E-02
  1.82511417E-01  1.86627843E-02 -2.15834399E-01  8.28052925E-01  8.46705573E-02
 -7.48721478E-01  2.87249029E+00  2.93728732E-01  1.73168631E-02 -2.01613586E-02
  1.78712720E-02  1.42130091E-02  3.60947338E-02  1.00648369E-02 -1.23819561E-02
 -5.67626974E-03  1.78474786E-02  1.19624026E-02  2.55925098E-02 -5.00757493E-01
 -1.07829624E+00 -1.04479833E-02 -2.00821491E-03  1.35224771E-02  6.00725784E-01